<?xml version="1.0"?>
<VTKFile type="UnstructuredGrid"  version="0.1"  >
<UnstructuredGrid>
<Piece  NumberOfPoints="9969" NumberOfCells="54413">
<Points>
<DataArray  type="Float64"  NumberOfComponents="3"  format="ascii">0 10 -2.5  -6.123233995736766e-16 -10 -2.5  10 -10 -2.5  10 -5 -2.5  -3.061616997868384e-16 -5 -2.5  0 5 -2.5  10 5 -2.5  10 10 -2.5  0 10 2.5  -6.123233995736766e-16 -10 2.5  10 -10 2.5  10 -5 2.5  -3.061616997868384e-16 -5 2.5  0 5 2.5  10 5 2.5  10 10 2.5  -50 -50 50  -50 -50 -50  -50 50 50  -50 50 -50  50 -50 -50  50 -50 50  50 50 50  50 50 -50  -0.980171403295606 9.95184726672197 -2.5  -1.950903220161282 9.807852804032304 -2.5  -2.902846772544623 9.569403357322088 -2.5  -3.826834323650898 9.238795325112868 -2.5  -4.713967368259977 8.819212643483551 -2.5  -5.555702330196022 8.314696123025453 -2.5  -6.343932841636455 7.73010453362737 -2.5  -7.071067811865476 7.071067811865476 -2.5  -7.730104533627369 6.343932841636455 -2.5  -8.314696123025453 5.555702330196023 -2.5  -8.819212643483549 4.713967368259978 -2.5  -9.238795325112868 3.826834323650898 -2.5  -9.56940335732209 2.902846772544623 -2.5  -9.807852804032304 1.950903220161281 -2.5  -9.95184726672197 0.9801714032956033 -2.5  -10 -3.82856869892695e-15 -2.5  -9.951847266721968 -0.9801714032956109 -2.5  -9.807852804032303 -1.950903220161289 -2.5  -9.569403357322088 -2.90284677254463 -2.5  -9.238795325112864 -3.826834323650905 -2.5  -8.819212643483546 -4.713967368259985 -2.5  -8.314696123025447 -5.555702330196031 -2.5  -7.730104533627362 -6.343932841636464 -2.5  -7.071067811865467 -7.071067811865483 -2.5  -6.343932841636445 -7.730104533627378 -2.5  -5.555702330196011 -8.31469612302546 -2.5  -4.713967368259962 -8.819212643483556 -2.5  -3.826834323650882 -9.238795325112875 -2.5  -2.902846772544607 -9.569403357322093 -2.5  -1.950903220161264 -9.807852804032308 -2.5  -0.9801714032955862 -9.95184726672197 -2.5  1 -10 -2.5  2 -10 -2.5  3 -10 -2.5  4 -10 -2.5  5 -10 -2.5  6 -10 -2.5  7 -10 -2.5  8 -10 -2.5  9 -10 -2.5  10 -9 -2.5  10 -8 -2.5  10 -7 -2.5  10 -6 -2.5  1 -5 -2.5  2 -5 -2.5  3 -5 -2.5  4 -5 -2.5  5 -5 -2.5  6 -5 -2.5  7 -5 -2.5  8 -5 -2.5  9 -5 -2.5  -0.9754516100806412 4.903926402016152 -2.5  -1.913417161825449 4.619397662556434 -2.5  -2.777851165098011 4.157348061512726 -2.5  -3.535533905932738 3.535533905932738 -2.5  -4.157348061512726 2.777851165098011 -2.5  -4.619397662556434 1.913417161825449 -2.5  -4.903926402016152 0.9754516100806416 -2.5  -5 3.061616997868383e-16 -2.5  -4.903926402016152 -0.975451610080641 -2.5  -4.619397662556434 -1.913417161825449 -2.5  -4.157348061512726 -2.77785116509801 -2.5  -3.535533905932738 -3.535533905932737 -2.5  -2.777851165098011 -4.157348061512726 -2.5  -1.913417161825447 -4.619397662556434 -2.5  -0.9754516100806386 -4.903926402016153 -2.5  1 5 -2.5  2 5 -2.5  3 5 -2.5  4 5 -2.5  5 5 -2.5  6 5 -2.5  7 5 -2.5  8 5 -2.5  9 5 -2.5  10 9 -2.5  10 8 -2.5  10 7 -2.5  10 6 -2.5  1 10 -2.5  2 10 -2.5  3 10 -2.5  4 10 -2.5  5 10 -2.5  6 10 -2.5  7 10 -2.5  8 10 -2.5  9 10 -2.5  -0.980171403295606 9.95184726672197 2.5  -1.950903220161282 9.807852804032304 2.5  -2.902846772544623 9.569403357322088 2.5  -3.826834323650898 9.238795325112868 2.5  -4.713967368259977 8.819212643483551 2.5  -5.555702330196022 8.314696123025453 2.5  -6.343932841636455 7.73010453362737 2.5  -7.071067811865476 7.071067811865476 2.5  -7.730104533627369 6.343932841636455 2.5  -8.314696123025453 5.555702330196023 2.5  -8.819212643483549 4.713967368259978 2.5  -9.238795325112868 3.826834323650898 2.5  -9.56940335732209 2.902846772544623 2.5  -9.807852804032304 1.950903220161281 2.5  -9.95184726672197 0.9801714032956033 2.5  -10 -3.82856869892695e-15 2.5  -9.951847266721968 -0.9801714032956109 2.5  -9.807852804032303 -1.950903220161289 2.5  -9.569403357322088 -2.90284677254463 2.5  -9.238795325112864 -3.826834323650905 2.5  -8.819212643483546 -4.713967368259985 2.5  -8.314696123025447 -5.555702330196031 2.5  -7.730104533627362 -6.343932841636464 2.5  -7.071067811865467 -7.071067811865483 2.5  -6.343932841636445 -7.730104533627378 2.5  -5.555702330196011 -8.31469612302546 2.5  -4.713967368259962 -8.819212643483556 2.5  -3.826834323650882 -9.238795325112875 2.5  -2.902846772544607 -9.569403357322093 2.5  -1.950903220161264 -9.807852804032308 2.5  -0.9801714032955862 -9.95184726672197 2.5  0 10 -1.5  0 10 -0.5  0 10 0.5  0 10 1.5  -1.224646799147353e-15 -10 -1.5  -1.224646799147353e-15 -10 -0.5  -1.224646799147353e-15 -10 0.5  -1.224646799147353e-15 -10 1.5  1 -10 2.5  2 -10 2.5  3 -10 2.5  4 -10 2.5  5 -10 2.5  6 -10 2.5  7 -10 2.5  8 -10 2.5  9 -10 2.5  10 -10 1.5  10 -10 0.5  10 -10 -0.5  10 -10 -1.5  10 -9 2.5  10 -8 2.5  10 -7 2.5  10 -6 2.5  10 -5 1.5  10 -5 0.5  10 -5 -0.5  10 -5 -1.5  1 -5 2.5  2 -5 2.5  3 -5 2.5  4 -5 2.5  5 -5 2.5  6 -5 2.5  7 -5 2.5  8 -5 2.5  9 -5 2.5  -6.123233995736767e-16 -5 -1.5  -6.123233995736767e-16 -5 -0.5  -6.123233995736767e-16 -5 0.5  -6.123233995736767e-16 -5 1.5  -0.9754516100806412 4.903926402016152 2.5  -1.913417161825449 4.619397662556434 2.5  -2.777851165098011 4.157348061512726 2.5  -3.535533905932738 3.535533905932738 2.5  -4.157348061512726 2.777851165098011 2.5  -4.619397662556434 1.913417161825449 2.5  -4.903926402016152 0.9754516100806416 2.5  -5 3.061616997868383e-16 2.5  -4.903926402016152 -0.975451610080641 2.5  -4.619397662556434 -1.913417161825449 2.5  -4.157348061512726 -2.77785116509801 2.5  -3.535533905932738 -3.535533905932737 2.5  -2.777851165098011 -4.157348061512726 2.5  -1.913417161825447 -4.619397662556434 2.5  -0.9754516100806386 -4.903926402016153 2.5  0 5 -1.5  0 5 -0.5  0 5 0.5  0 5 1.5  1 5 2.5  2 5 2.5  3 5 2.5  4 5 2.5  5 5 2.5  6 5 2.5  7 5 2.5  8 5 2.5  9 5 2.5  10 9 2.5  10 8 2.5  10 7 2.5  10 6 2.5  1 10 2.5  2 10 2.5  3 10 2.5  4 10 2.5  5 10 2.5  6 10 2.5  7 10 2.5  8 10 2.5  9 10 2.5  10 10 -1.5  10 10 -0.5  10 10 0.5  10 10 1.5  10 5 -1.5  10 5 -0.5  10 5 0.5  10 5 1.5  -50 -50 -40  -50 -50 -30  -50 -50 -20  -50 -50 -10  -50 -50 0  -50 -50 10  -50 -50 20  -50 -50 30  -50 -50 40  -50 -40 50  -50 -30 50  -50 -20 50  -50 -10 50  -50 0 50  -50 10 50  -50 20 50  -50 30 50  -50 40 50  -50 50 -40  -50 50 -30  -50 50 -20  -50 50 -10  -50 50 0  -50 50 10  -50 50 20  -50 50 30  -50 50 40  -50 -40 -50  -50 -30 -50  -50 -20 -50  -50 -10 -50  -50 0 -50  -50 10 -50  -50 20 -50  -50 30 -50  -50 40 -50  -40 -50 -50  -30 -50 -50  -20 -50 -50  -10 -50 -50  0 -50 -50  10 -50 -50  20 -50 -50  30 -50 -50  40 -50 -50  50 -50 -40  50 -50 -30  50 -50 -20  50 -50 -10  50 -50 0  50 -50 10  50 -50 20  50 -50 30  50 -50 40  -40 -50 50  -30 -50 50  -20 -50 50  -10 -50 50  0 -50 50  10 -50 50  20 -50 50  30 -50 50  40 -50 50  -40 50 50  -30 50 50  -20 50 50  -10 50 50  0 50 50  10 50 50  20 50 50  30 50 50  40 50 50  50 -40 50  50 -30 50  50 -20 50  50 -10 50  50 0 50  50 10 50  50 20 50  50 30 50  50 40 50  -40 50 -50  -30 50 -50  -20 50 -50  -10 50 -50  0 50 -50  10 50 -50  20 50 -50  30 50 -50  40 50 -50  50 50 -40  50 50 -30  50 50 -20  50 50 -10  50 50 0  50 50 10  50 50 20  50 50 30  50 50 40  50 -40 -50  50 -30 -50  50 -20 -50  50 -10 -50  50 0 -50  50 10 -50  50 20 -50  50 30 -50  50 40 -50  0.9692721743197217 -5.795293684244037 -2.5  0.9692202670256413 5.795426243422052 -2.5  -8.980398982858906 2.634994465690968e-06 -2.5  -3.985798290130022 8.58232785381375 -2.5  -3.985711301933529 -8.582304118051123 -2.5  5.988374633259582 -8.650486060650344 -2.5  8.478101607978914 -7.223598610354291 -2.5  5.991098905854328 -5.802770188695867 -2.5  -6.525363536125814 1.44334798111532 -2.5  -6.525380027437349 -1.443344736724756 -2.5  5.988429758287031 8.6506506700362 -2.5  8.478031627358776 7.223643219995114 -2.5  5.991170967389245 5.802700224052105 -2.5  -8.883642261027664 2.852330716293782 -2.5  -8.883557139269088 -2.852299790914404 -2.5  -1.517569880573316 7.222189193513247 -2.5  0.9847722557209712 8.650828012529661 -2.5  3.485992893901293 7.220502238905611 -2.5  -1.517554526432253 -7.222174513985856 -2.5  0.9849764478229924 -8.650838433154096 -2.5  3.486045029906534 -7.220543104485401 -2.5  -4.020318569980245 -5.778815424517344 -2.5  -6.346170637884454 -7.15133539829932 -2.5  -6.520249744562942 -4.333525246116508 -2.5  -4.020301169800542 5.778778520256496 -2.5  -6.520209940027225 4.333509266683848 -2.5  -6.346178778736905 7.151338745493236 -2.5  -8.979022945415663 1.402919842468693 -2.5  -8.979534523061664 -1.4026657703922 -2.5  -2.607387680833765 9.21379570422487 -2.5  -2.760950553243164 7.938111704821278 -2.5  -1.48565317871474 8.655846011820403 -2.5  -0.1881264236251513 9.314188403115232 -2.5  -0.2647665759321682 7.942353887204384 -2.5  -0.2710554114425561 6.507028668557418 -2.5  0.9834919145038458 7.222265330167346 -2.5  2.223100794017683 6.50346719211467 -2.5  3.49126112331399 5.688452045330026 -2.5  4.738411162669745 7.942524057247647 -2.5  4.749816410538106 6.503507722754289 -2.5  5.987625569257957 7.222494475396622 -2.5  7.172443980994683 9.317604453733809 -2.5  7.236795238861574 7.942787637940787 -2.5  8.479028059208337 8.663854449043031 -2.5  9.597610863323572 9.252462886276602 -2.5  9.497473079823813 7.959232227801062 -2.5  9.584024032445605 6.519180468153731 -2.5  8.486084403255472 5.689589952322033 -2.5  7.226505409157618 6.503483572870346 -2.5  4.810018698039025 9.317874326845887 -2.5  3.486868750831556 8.666010368544313 -2.5  2.23351682103944 7.942602774818795 -2.5  2.170139705176668 9.318149059883888 -2.5  -2.760609366913841 -7.937966749501626 -2.5  -2.607543730961308 -9.213927257251257 -2.5  -1.485601581736419 -8.655866100019979 -2.5  -0.2711079751156193 -6.507125354438587 -2.5  -0.264794750512272 -7.942300507066339 -2.5  0.9835802585727372 -7.222203477608533 -2.5  -0.1880954459361588 -9.314092457743758 -2.5  2.223473543556111 -6.503153099259391 -2.5  3.491502673545089 -5.688484787253908 -2.5  4.749925124247714 -6.503485608056579 -2.5  4.738283808233729 -7.942582325364333 -2.5  5.987503153703957 -7.222512268854545 -2.5  7.236654022159899 -7.942535392205131 -2.5  7.17230292400538
[...]
<PointData  Vectors="f_32"> 
<DataArray  type="Float64"  Name="f_32"  NumberOfComponents="3" format="ascii">3.8465267718404687e-16 1.5553442196703713e-15 6.4879096576425077e-16  -7.2962915639030349e-16 1.4861365597754548e-15 -1.2707506730081738e-15  -5.6762538984143813e-16 -1.0141469814068351e-15 5.2977359999397298e-16  1.5396028658904003e-16 6.0772729704112337e-16 -4.7963695811385911e-16  4.1447469603815969e-16 -3.1869977630122519e-15 -1.6485616398886280e-15  8.8129211652336287e-16 -7.2006418869644349e-16 -4.2903096479251993e-16  -4.3559894032223589e-16 -6.6648749149992796e-16 8.0016022404309716e-16  -1.7435505056725601e-16 3.4491178129018792e-16 3.9998175560744836e-16  -2.5418979950106429e-16 -4.1382584780905600e-16 3.7521856646544627e-16  9.5497544478517643e-16 9.8200832161513281e-16 -1.1560011139992075e-15  4.5957808651111613e-16 8.2541558198368227e-16 2.4456182851046647e-16  -4.6173650498909215e-16 -7.9443854853348698e-16 8.4179620543677915e-16  -8.9195324210435908e-16 -4.4355439446290227e-15 -8.9032347570438554e-16  -1.6266490374628349e-15 5.6972062168098962e-16 -1.9296216201216689e-15  -6.7850130687171079e-16 8.6379409220709805e-16 1.2414996949439916e-16  4.0523181486793724e-16 1.9983083468543879e-16 1.3450533949496843e-15  2.8977534196471363e-18 1.6980238759339470e-17 -1.7240778464780797e-17  2.2457520026645541e-18 8.8597904402962584e-19 7.2530048359919387e-18  -3.4271718410607035e-20 -1.4389144514413451e-18 -1.9670701229055403e-18  -3.4935373100728452e-17 3.9191512168426743e-17 -2.4911704681169461e-17  -9.7982464750748801e-18 -3.3478331950984761e-18 -1.1838084397590446e-18  -9.7570402507123743e-18 2.8640948000568235e-18 -1.4793506567119563e-17  -1.3835636543644986e-18 2.9671547525242810e-18 3.5899169577500311e-18  7.9944904332953039e-17 8.2286392264994711e-17 -9.3692863394697987e-17  -1.7113558682975143e-15 1.0374032564884968e-15 5.3615423356066251e-16  -3.1144900571033555e-17 -5.3385782011154943e-16 4.7365461896906597e-17  5.8089175159448394e-18 -8.9123338757867080e-16 -1.9501289859847084e-17  -4.0012895266805192e-16 -5.8304147639643264e-16 1.8056026614400157e-16  -1.5473789430714858e-15 -9.0689610160188710e-16 -9.9178210692386846e-17  -7.8410315063423696e-17 -1.7590600973964204e-16 -1.5903638219373390e-15  1.9169577389576863e-15 2.8666467816459160e-16 -7.9812100270749917e-16  -1.2295509941242028e-16 -1.8591248925995030e-15 3.4784539330160078e-17  -1.2981165369932171e-15 2.3562544054459726e-15 2.8301286471520274e-16  -2.0338935978450116e-15 1.5416815330180745e-15 -8.1016226211760857e-16  -2.0525132714661454e-15 7.2780555954067011e-17 8.6445385383148137e-17  -2.2490617991781789e-16 1.4020347038147551e-16 -2.2211773900718321e-16  1.5061623215310910e-16 -5.5950458992006589e-16 1.5420920716294598e-16  1.0550685640822157e-16 1.3470525020986641e-15 7.0495267062386518e-16  -1.4272113429563290e-16 -2.4814231568140893e-16 -6.3640612760482958e-16  -1.6034973093458340e-15 1.4073326801696464e-16 1.4612397055315052e-16  5.0602641016261744e-17 2.9846710383137068e-16 6.5979799980593616e-17  -8.5060008077659327e-16 9.6359355215636657e-16 -9.5744622612646993e-17  -7.6523143400165417e-16 4.3948826941401522e-16 1.1068892639026360e-15  -4.0078907739438190e-16 -4.9577986648330755e-16 2.2268299940781864e-15  1.7878746103216736e-17 -6.1031663843179544e-16 1.6835117558481780e-15  -2.3386041655745958e-15 -5.7141914249820976e-16 4.3448190348895287e-16  -1.1654872625364482e-15 -1.2768756038576414e-15 -1.3302061400925684e-15  -1.0740373492430198e-15 -1.1902006652097482e-15 2.2532437470736527e-15  -1.4017596773913110e-17 2.1349013903181577e-16 7.9443776534536750e-16  -8.5049944963731707e-17 7.8041611873841361e-17 1.2244875334619354e-15  9.6604671738684953e-16 6.3467196841930720e-16 1.3284600149206162e-15  4.0899941668624008e-16 1.2693400599949229e-15 6.1610177994267562e-16  -3.9477883994314452e-16 2.0630488741784026e-15 2.0441931307122870e-16  3.4657794530340569e-16 1.7221841061199628e-15 -4.9713419523512126e-16  -1.7056251787249053e-15 1.5520995556330964e-15 3.3377083608369086e-16  3.4904924341296185e-16 1.0114735596284743e-15 6.0089575987383978e-16  -5.7886821811556483e-16 7.2734044852698362e-16 5.8478365735609998e-16  -9.7843366899359979e-16 4.4983922554737852e-16 1.1094785809968134e-15  -2.8559017644362611e-18 8.2481268721029832e-16 -2.7379551059795203e-16  -4.9718396287007516e-16 9.5207543844611709e-16 -1.1706444516057282e-15  6.1413683332109587e-16 -1.0221912003447312e-16 1.5639163522620873e-15  -2.4331970836932287e-16 7.1527664183237387e-16 1.3304420986570479e-15  1.8268217383092394e-16 5.6482291609505011e-16 8.7013202049914615e-16  -3.7877072690574778e-16 1.7585086887269324e-16 1.5568072920305627e-15  -1.4201725359333135e-15 -1.2202730817854524e-16 9.6414093836832505e-20  -1.7258087090262650e-15 -1.2618032710408831e-16 1.3226232673273921e-15  -3.4916258418718465e-17 8.2915108718475351e-16 1.6859013158682254e-15  -1.0800944456582641e-15 -2.9600884174942243e-16 -4.3895272246788643e-16  6.5718235198711346e-17 3.7054112685805078e-16 -1.0663204021530835e-15  -9.4417135048883548e-16 5.0302397482911982e-16 2.0910073875067142e-16  -1.6930662537734067e-16 -7.5454520834442470e-16 -5.6748211239410579e-16  -9.6337937776275320e-16 -4.4293299849827757e-16 6.7292959138054302e-16  -1.8245345934467574e-15 -1.2608672815806586e-15 4.2010481511404023e-16  5.0467387625639536e-16 -1.1191056068963145e-15 -8.6975369097305929e-17  -6.1267683793720614e-16 -4.4855845209595591e-16 5.7864725102236289e-16  -1.4028934748779103e-15 -2.0062251175219577e-16 1.0353296288447300e-15  -7.7485746095144799e-16 4.9979427412974709e-16 -2.7283806414670584e-16  4.7152124415214343e-16 1.2743605473674021e-16 3.7153801473935413e-16  -5.0454800666312304e-17 -9.4402042293303832e-16 4.5198043476618165e-16  -3.0075451404272122e-16 3.2518596390795530e-16 -1.3191911157441672e-15  -1.2473074840374384e-15 6.2204577604195962e-16 -8.3004248833124682e-16  1.1238243909900064e-15 -2.2537548188220322e-15 1.9232772456909846e-15  2.4763441441299192e-16 1.8293156938654250e-15 3.2721790357342303e-15  -7.4509131072091810e-16 -1.4937717423191494e-15 8.9218244710322977e-16  -1.2325591787168195e-15 -1.1136541061178073e-15 -1.1315280637977153e-16  -2.5111953204041413e-16 2.2503181911846056e-16 4.0172857990806421e-16  3.7483036125464072e-16 5.0603419070729219e-16 -7.8563151519353394e-16  6.9207418962963933e-16 5.9752323327678729e-16 -4.7300985735741329e-16  1.4444448294946178e-15 -2.8887129669028172e-16 1.4042922942316412e-15  8.9445595398539479e-16 3.6685445476005314e-16 2.2535459724006028e-15  -6.1681747463774382e-16 -5.9190101693902842e-17 2.3030997539801038e-15  -1.7625152813466737e-15 -2.3210192295561654e-16 -2.4888348766332385e-15  5.3693211371084286e-16 -3.8862161154610693e-16 -1.1601727985146598e-16  -8.0658170222212835e-16 -1.1790215653848660e-15 -5.0560988093762407e-16  -1.0504006573449949e-15 1.2460670576585956e-15 1.8647412670836749e-17  1.3595980383676235e-16 7.1806928560547193e-16 1.1107048954765710e-15  -7.8471572594255156e-17 6.9504011832085565e-16 -5.4258561463340658e-16  -1.1788505951095037e-15 8.6496308623063247e-16 4.7322433326976135e-17  -6.2616818164443598e-16 -3.9153467343895054e-16 8.3684131736689201e-16  -1.5778070186298309e-15 6.2632603480277714e-17 2.8815546531401709e-16  -9.2923859041515200e-16 4.3543019259123198e-16 4.3343817102003485e-17  -5.0926718215424651e-16 1.7770423684762323e-16 1.2929426218456790e-16  3.0472410011383943e-17 1.0612457620906388e-15 4.9046622980748929e-16  -1.8385138835063815e-16 -8.2746951240989128e-16 5.5799279476131703e-16  -2.8661996963096785e-17 -5.8332680604346738e-18 8.3662846388144467e-16  1.0807459506284989e-15 -1.4098720781993899e-16 2.8520593624525342e-16  -9.4971788970688035e-16 -3.8624097831393703e-16 1.6005017017166100e-15  -1.0443150483422047e-15 1.3689179174121741e-16 9.3837467673860826e-16  -3.3542928271886629e-16 1.7586634232087328e-16 1.0826170590972216e-15  5.0821706716344054e-17 -1.1276404256364769e-15 1.2352258966211864e-15  6.4329113120598890e-16 -1.2144216763855975e-15 2.2563843564326828e-16  -1.1260777268181934e-15 -1.1144171752793425e-15 2.6848002829476013e-16  -3.8516290699083476e-16 2.8585472621860732e-16 -6.6345095785391681e-16  -3.1877149239690463e-16 5.9364340950090575e-16 -1.2759683640625584e-16  6.2017786503919351e-16 1.2972713636165536e-16 -3.4322593241612348e-16  -9.1835853959844600e-16 -2.5479810900098499e-16 -7.1231088479265656e-16  -6.7026658895662354e-16 -4.8683619807390009e-16 -1.0243019302895352e-15  -9.1648368331531021e-16 -1.2762304995274437e-15 -1.4829994288474049e-15  1.5105574593555449e-15 -1.2623399731989228e-15 -3.4859016822585531e-15  -5.9818653775291442e-16 3.0060010168533099e-16 -7.7092654531389201e-16  -2.9326016048112255e-16 1.1453037022806486e-15 -1.3083135256825419e-16  -9.5180021757533894e-16 9.5715335562376491e-16 8.1901939895047002e-16  -6.7076203474428660e-16 -1.1017409823377153e-16 2.5738273134535066e-16  1.1510005741511061e-15 8.2202700965564014e-16 -5.6495222897487058e-17  -1.3087237832599578e-15 5.0006568734220804e-16 -6.5831940771208242e-17  -1.1085866983772949e-15 -3.8546719074261462e-16 -6.5199546727687964e-16  4.1116297972687226e-16 4.5485904313595130e-16 -7.2215877056793706e-16  1.0530289622231645e-15 8.9174087973159147e-16 -3.8721799885214839e-16  5.7728670512823236e-16 -1.2892539691756373e-15 2.1979554749758035e-16  2.5059857114622195e-15 -8.2843503543515157e-16 2.2170299828297143e-15  1.7934915423320089e-15 -2.0623377050704706e-16 1.6713535194114226e-15  1.6241043232989914e-15 -4.5282280989320817e-16 -1.0284533685839456e-16  2.9145624129932689e-15 -1.1467657968827718e-15 -5.5092103614169373e-16  3.3601670109855402e-15 9.3423763477502752e-16 1.9553711622399341e-15  -1.3528324626781870e-15 1.7868973293646163e-15 -1.0673496643680999e-15  -1.4665749238089669e-15 1.5282150928869382e-15 -1.4070923045678838e-15  -1.0274162513055637e-15 1.7264590781909724e-15 -4.2012694672749745e-16  -1.0086060021494163e-16 1.4614320703503246e-15 -1.2899095103948081e-15  -2.7804805922716797e-16 -1.9910984643263865e-16 -7.1937553721638565e-16  1.1494399722078290e-15 -4.8271246710562561e-16 -2.5385497920845664e-16  3.0072929194648701e-16 3.7215607348489258e-16 1.3753139385640386e-16  -4.5745617397097694e-16 6.6660360594277848e-16 -3.2944787916753421e-16  -7.1104969686907599e-16 6.4593540656243944e-16 -5.9090938016737053e-16  -6.3674007105086859e-16 -1.1811343797984023e-16 -1.0701747326644697e-15  -3.7589748976898037e-16 -2.1269031229887036e-17 -8.4244178137048639e-16  -8.4499565284861797e-16 1.3337613875624975e-15 1.0127500796227749e-15  -1.2014410440248925e-16 3.2163659555224381e-16 -6.6410871624563355e-16  -8.4316719996907100e-16 -1.5372569504059128e-16 -3.4163670553590901e-17  -7.3943535906289121e-16 4.3279400747005183e-16 5.6253595951337922e-16  -3.2814922613744643e-15 9.4847527839262318e-16 2.2163619243261215e-15  -2.8381545680828465e-15 1.3366192712788654e-15 -8.4569935763709183e-17  -7.4802125178958485e-16 2.2315146791315598e-15 -9.5023834152299058e-16  -4.5360405637998788e-17 2.0218994255676178e-15 2.4385847164289184e-16  -1.4393863907347608e-15 1.6142533326062573e-15 -1.5539383501042745e-15  -1.0727072269156291e-15 1.6223249525526022e-15 7.9024205639037910e-17  -4.2614653822208301e-16 9.4796210624835359e-16 4.4222481292197672e-16  2.2185988356806887e-16 7.0833495969611215e-16 -6.1500003206998800e-16  1.9071274285802163e-16 9.9497600470195847e-16 -1.2262549510052420e-15  -1.0517617260230298e-16 1.9272686635928915e-15 5.2611661001754050e-16  8.6528505746768412e-16 2.0468839879547987e-15 2.6627544312762877e-16  3.7266555060584681e-16 1.5998417107717105e-15 3.2705568543157172e-16  -2.3671229349768253e-16 6.9250641584214229e-16 1.0353613756659998e-15  3.7089099118320391e-16 7.1539327131636694e-16 1.1197094679286072e-15  2.9609268288654740e-17 -1.3110640125021781e-16 -6.0033600263199412e-16  1.6268794671164272e-16 2.1672635533187912e-16 8.9811280186211623e-16  7.3742899897061971e-17 -8.8650450474150358e-17 3.0289942813435447e-16  6.2872471423064233e-16 5.7633028181668019e-16 -5.1072609870960503e-16  -2.9338501424951469e-16 4.1871253272414017e-17 3.8949938316090992e-16  -1.6574028701092747e-15 1.6065864544362237e-16 8.0967004377270706e-16  -1.3285584507232524e-15 -1.8051698944760190e-16 2.5526185274938227e-15  -7.5347674743989665e-16 -2.5764531860149231e-16 1.1086136128379528e-15  1.7823392490270522e-16 -1.3787066540529315e-15 7.3015726577035543e-16  5.6314832802231022e-16 -9.5873932330763599e-16 7.7066575851622692e-16  8.5022457212001852e-16 -3.4610188453863879e-16 -3.5994780592192188e-16  1.8843950128052283e-16 -5.5427034123771721e-16 4.3595049121198546e-16  1.1944282706609987e-15 1.4838242308500151e-16 -2.5179481109479932e-15  -1.4255835745397757e-15 -1.3016159761192455e-15 -3.0925964807368888e-15  -1.4059123546152774e-15 1.0758332348002578e-15 -8.7575301259372233e-16  -2.9418688937852248e-16 8.4286146996720822e-16 -9.6928180797098616e-16  -1.6444122646019530e-15 -3.7872665071296332e-16 3.6667529069455740e-16  8.3455032648576083e-17 9.1363270123924952e-19 7.6947073133033811e-16  1.0427114334200318e-15 -7.6397234831946697e-16 4.1838240446743115e-16  -2.5512395532619420e-16 -4.6344727639045172e-16 3.9376688794170043e-16  -3.4283899578950447e-16 -3.2517334870565646e-15 -1.1738008007531598e-16  5.0785582912801297e-16 -1.6503059823314231e-15 1.4950385869984943e-15  3.4708990117869773e-16 -1.3558714336650484e-15 9.5825276149899274e-16  1.7801855491753970e-16 -3.3114246319667119e-15 -1.8967032470985574e-15  -8.2099000669076672e-16 -2.0803307927458783e-16 -1.1431412261431307e-16  8.4706125429589951e-16 3.8413216692380845e-16 -1.6374404495049896e-16  -1.0004728592427990e-15 -1.0055812299305943e-15 -4.6125408338304627e-16  -7.9765692379982494e-16 3.9145214725477099e-16 -1.2381625764042074e-15  1.3739323098877587e-16 9.3339278728097579e-16 -1.2111909591624980e-15  6.4986088061492517e-16 5.7472957797226346e-16 -7.8729599147460973e-16  1.7870811516636390e-15 -5.2876492379205845e-16 3.3238667040703963e-16  5.3042594194896337e-16 -8.3120910370137887e-16 8.4751430037698455e-16  -4.7319506288383662e-16 4.4602032163680319e-16 -3.2792744622915771e-16  -5.4459110072020352e-16 -5.1268399476758062e-16 -1.7199692049642398e-16  -1.6181846283282376e-15 1.0842841392128265e-15 8.9690678753720007e-17  4.5602092653080480e-16 1.4461022405505937e-15 5.6106258043072941e-16  1.4441218851362214e-15 -8.0980829708190554e-16 -8.6071247702780629e-16  -1.3254826571421817e-15 -6.8295934246643375e-16 -4.2756033175360297e-15  -1.6046060168559838e-15 -1.7591331410602112e-15 -2.0557832699680033e-15  -3.8507849914977003e-18 -3.3169297738391721e-17 -2.0762600063382710e-16  -6.9696146509659091e-16 -5.7577955375619733e-16 1.7603752419647083e-15  -6.0792365955791442e-16 -7.4610482069204445e-16 9.5791334179613532e-16  1.9390397280146810e-15 -1.2813340664462521e-15 -3.0740668189741993e-16  -7.5827481150617865e-16 1.6689875059441026e-15 -1.9190821656055308e-15  3.3550049508704246e-16 3.1528430020735661e-16 2.2308714532752154e-17  7.7798645173540129e-16 -3.8143647340735823e-17 2.6089593496164396e-16  -9.0829591930128118e-16 2.5211779936567064e-17 -1.3406957213994698e-16  -1.3454208323309531e-15 -5.2426163771542259e-16 -8.9074391121535011e-16  -1.4928247446870369e-16 -5.4766793857017379e-16 5.5969407952238819e-16  7.2272089485118716e-17 1.4926101421604440e-16 1.6695246243867178e-15  9.6050109907992700e-16 7.4926620653720990e-16 1.1821313768843194e-15  -4.1709376727659750e-16 6.1848395788786252e-16 2.5145179984164568e-16  -9.4638967759898315e-16 8.3356488329561887e-16 4.2958929506804288e-16  -1.6456328957813180e-15 -1.7147099258354252e-15 -1.8585180227741030e-16  -1.2063572276576050e-15 -1.3044810499982241e-15 -7.7979031208674677e-16  -1.2834343615989176e-15 -6.5254748506250636e-16 5.5917276925299117e-17  -2.3028985653955329e-16 -4.3705489050252489e-16 -4.2933228601326851e-16  -1.4897428393051478e-15 -1.3865748425651624e-15 5.3005169057899452e-16  -6.0470359034611449e-16 -8.2167601405164000e-16 4.1999193296932353e-17  -7.4693979302638973e-16 -1.6633954229053453e-15 -2.2263531695598388e-16  2.0710418176403396e-16 -1.1956962474076510e-15 -8.5750126531654720e-16  -2.7398885113908256e-16 -2.9401895194168042e-16 -5.4093222097917497e-16  4.5151179293242777e-17 -4.6925400373250426e-17 -6.9127667669427322e-16  -8.8486079857224065e-16 -3.1798844218165632e-16 1.0308814702403673e-16  -1.8441290015730536e-17 -1.3424769366688467e-15 7.5858283646327680e-16  -8.1655414388306424e-16 -6.9912988203819669e-16 2.2125168841306699e-16  3.2693006988047136e-16 -1.2696589986513362e-15 -4.0738323204349816e-16  5.2333038766045375e-17 -3.1128760029826615e-16 -7.5580594363846709e-16  1.0384732096786510e-16 -1.3527017731496510e-16 9.2248421597389472e-16  -6.8182639245426119e-16 4.3147809406636400e-16 3.8219527999487190e-16  -7.9627884072454074e-16 2.4219094693359267e-16 5.8926731150325827e-16  5.8101146154900489e-16 -6.9392887359937403e-16 6.1930873696209651e-17  6.2172858563491441e-16 -6.7011714764414910e-16 3.6239622688246674e-16  -2.9562162033813137e-17 -3.4908396086314082e-17 -6.8023978780040079e-18  3.9763917845285178e-17 2.4228166515234870e-17 2.5572532524929507e-17  5.7869962640257545e-17 5.1018497644410406e-17 3.6209864910227635e-18  3.2766632902044929e-17 1.4141602218054285e-17 4.7939118768582248e-18  1.5285678245315826e-17 3.4826496293763771e-17 -2.1402836300257741e-17  -5.4859988317600589e-18 3.3022379761004970e-18 2.0040319215544709e-17  -2.3254215320022816e-17 -1.5575664292795609e-17 -3.9281423416284110e-18  -8.5700835917924875e-17 -1.0283223636698737e-16 -1.4304962504524687e-17  -6.3107102551722511e-18 -6.7226129067812857e-18 1.7770218769081036e-17  -2.1710900104976014e-17 -1.7729248979849855e-19 1.8919728186954270e-17  1.6286730980005963e-17 1.9596952849175626e-17 -1.3143735551169137e-17  3.1167630852146462e-17 -2.6958816143975372e-18 -2.9554006523882319e-17  1.1188991554124494e-18 -3.8667870977568062e-18 -3.9407486423967932e-18  -4.5725069442659459e-17 -5.2723042041511087e-17 4.5157813642787648e-17  1.0294999944443035e-16 3.5746347359177093e-17 -1.2123013544806429e-16  6.4873986581164798e-17 -6.5518947087162644e-17 -8.0533554206178565e-17  -1.5189588254298583e-17 1.9559275321623702e-17 3.7324395387650846e-17  9.4496035569112933e-17 1.7004860564306545e-17 -8.1912634433008655e-17  4.6769366820534254e-17 -5.0850605218304984e-17 9.3013094164229399e-17  9.5471271370752794e-17 -8.1728948112584541e-17 -1.1784044267865451e-16  -1.3856884670545609e-17 -8.3456866431200741e-18 -2.1427570004942193e-17  1.5589748743515810e-17 -1.1357497456558293e-17 1.4730499231066661e-17  1.8193315826248611e-17 -1.9807681968053663e-17 2.8096553129819097e-17  -4.3532072516564161e-18 4.9929983526089268e-19 -3.0378367732635338e-17  -5.2735448032432443e-17 1.5436268297265930e-17 9.7258167271659341e-17  1.8391704935732234e-16 -1.8903435551493055e-16 -8.8482297807158281e-17  -4.7449105742425687e-17 2.3127261218002467e-17 9.9543482184995832e-18  2.3535037760887231e-17 -2.8329845063904961e-18 2.2247625904519987e-17  1.6869147825627798e-17 2.6389221081718247e-18 8.3965399800322395e-17  6.0434149083924878e-17 -7.9516279234501211e-17 1.4326180375757938e-16  6.4555912760494911e-16 1.0894979072916753e-16 6.6466529297152264e-16  -1.3166251580709374e-16 2.0381932294692200e-16 -1.0633958705571188e-16  5.8113734320864484e-17 -1.7782290944640008e-17 5.1612901039181943e-17  5.1851189618862110e-18 2.5030871713074457e-17 4.8606172343454123e-17  -4.2764989772824920e-17 -1.9237015336574914e-17 -2.4561620857102754e-17  -6.5588305737895234e-17 -3.9311416058295072e-18 -6.6262032684221400e-17  -7.0805888233866804e-18 -2.3071142786065780e-18 4.2167296190234084e-18  -1.4429688167001301e-17 5.4856142189022256e-18 1.5132986140730827e-17  1.6058842277075484e-17 -1.8977965181731466e-17 -1.2154437366958206e-17  -7.1193216487574375e-18 4.5506264048047563e-17 3.6509343287209236e-17  7.0920596423983142e-18 -2.1484419578164885e-17 -2.6883935218342489e-17  -3.5544362476079800e-17 -2.8138332426636211e-17 -2.2721098643786592e-17  2