<?xml version="1.0"?>
<VTKFile type="UnstructuredGrid"  version="0.1"  >
<UnstructuredGrid>
<Piece  NumberOfPoints="9969" NumberOfCells="54413">
<Points>
<DataArray  type="Float64"  NumberOfComponents="3"  format="ascii">0 10 -2.5  -6.123233995736766e-16 -10 -2.5  10 -10 -2.5  10 -5 -2.5  -3.061616997868384e-16 -5 -2.5  0 5 -2.5  10 5 -2.5  10 10 -2.5  0 10 2.5  -6.123233995736766e-16 -10 2.5  10 -10 2.5  10 -5 2.5  -3.061616997868384e-16 -5 2.5  0 5 2.5  10 5 2.5  10 10 2.5  -50 -50 50  -50 -50 -50  -50 50 50  -50 50 -50  50 -50 -50  50 -50 50  50 50 50  50 50 -50  -0.980171403295606 9.95184726672197 -2.5  -1.950903220161282 9.807852804032304 -2.5  -2.902846772544623 9.569403357322088 -2.5  -3.826834323650898 9.238795325112868 -2.5  -4.713967368259977 8.819212643483551 -2.5  -5.555702330196022 8.314696123025453 -2.5  -6.343932841636455 7.73010453362737 -2.5  -7.071067811865476 7.071067811865476 -2.5  -7.730104533627369 6.343932841636455 -2.5  -8.314696123025453 5.555702330196023 -2.5  -8.819212643483549 4.713967368259978 -2.5  -9.238795325112868 3.826834323650898 -2.5  -9.56940335732209 2.902846772544623 -2.5  -9.807852804032304 1.950903220161281 -2.5  -9.95184726672197 0.9801714032956033 -2.5  -10 -3.82856869892695e-15 -2.5  -9.951847266721968 -0.9801714032956109 -2.5  -9.807852804032303 -1.950903220161289 -2.5  -9.569403357322088 -2.90284677254463 -2.5  -9.238795325112864 -3.826834323650905 -2.5  -8.819212643483546 -4.713967368259985 -2.5  -8.314696123025447 -5.555702330196031 -2.5  -7.730104533627362 -6.343932841636464 -2.5  -7.071067811865467 -7.071067811865483 -2.5  -6.343932841636445 -7.730104533627378 -2.5  -5.555702330196011 -8.31469612302546 -2.5  -4.713967368259962 -8.819212643483556 -2.5  -3.826834323650882 -9.238795325112875 -2.5  -2.902846772544607 -9.569403357322093 -2.5  -1.950903220161264 -9.807852804032308 -2.5  -0.9801714032955862 -9.95184726672197 -2.5  1 -10 -2.5  2 -10 -2.5  3 -10 -2.5  4 -10 -2.5  5 -10 -2.5  6 -10 -2.5  7 -10 -2.5  8 -10 -2.5  9 -10 -2.5  10 -9 -2.5  10 -8 -2.5  10 -7 -2.5  10 -6 -2.5  1 -5 -2.5  2 -5 -2.5  3 -5 -2.5  4 -5 -2.5  5 -5 -2.5  6 -5 -2.5  7 -5 -2.5  8 -5 -2.5  9 -5 -2.5  -0.9754516100806412 4.903926402016152 -2.5  -1.913417161825449 4.619397662556434 -2.5  -2.777851165098011 4.157348061512726 -2.5  -3.535533905932738 3.535533905932738 -2.5  -4.157348061512726 2.777851165098011 -2.5  -4.619397662556434 1.913417161825449 -2.5  -4.903926402016152 0.9754516100806416 -2.5  -5 3.061616997868383e-16 -2.5  -4.903926402016152 -0.975451610080641 -2.5  -4.619397662556434 -1.913417161825449 -2.5  -4.157348061512726 -2.77785116509801 -2.5  -3.535533905932738 -3.535533905932737 -2.5  -2.777851165098011 -4.157348061512726 -2.5  -1.913417161825447 -4.619397662556434 -2.5  -0.9754516100806386 -4.903926402016153 -2.5  1 5 -2.5  2 5 -2.5  3 5 -2.5  4 5 -2.5  5 5 -2.5  6 5 -2.5  7 5 -2.5  8 5 -2.5  9 5 -2.5  10 9 -2.5  10 8 -2.5  10 7 -2.5  10 6 -2.5  1 10 -2.5  2 10 -2.5  3 10 -2.5  4 10 -2.5  5 10 -2.5  6 10 -2.5  7 10 -2.5  8 10 -2.5  9 10 -2.5  -0.980171403295606 9.95184726672197 2.5  -1.950903220161282 9.807852804032304 2.5  -2.902846772544623 9.569403357322088 2.5  -3.826834323650898 9.238795325112868 2.5  -4.713967368259977 8.819212643483551 2.5  -5.555702330196022 8.314696123025453 2.5  -6.343932841636455 7.73010453362737 2.5  -7.071067811865476 7.071067811865476 2.5  -7.730104533627369 6.343932841636455 2.5  -8.314696123025453 5.555702330196023 2.5  -8.819212643483549 4.713967368259978 2.5  -9.238795325112868 3.826834323650898 2.5  -9.56940335732209 2.902846772544623 2.5  -9.807852804032304 1.950903220161281 2.5  -9.95184726672197 0.9801714032956033 2.5  -10 -3.82856869892695e-15 2.5  -9.951847266721968 -0.9801714032956109 2.5  -9.807852804032303 -1.950903220161289 2.5  -9.569403357322088 -2.90284677254463 2.5  -9.238795325112864 -3.826834323650905 2.5  -8.819212643483546 -4.713967368259985 2.5  -8.314696123025447 -5.555702330196031 2.5  -7.730104533627362 -6.343932841636464 2.5  -7.071067811865467 -7.071067811865483 2.5  -6.343932841636445 -7.730104533627378 2.5  -5.555702330196011 -8.31469612302546 2.5  -4.713967368259962 -8.819212643483556 2.5  -3.826834323650882 -9.238795325112875 2.5  -2.902846772544607 -9.569403357322093 2.5  -1.950903220161264 -9.807852804032308 2.5  -0.9801714032955862 -9.95184726672197 2.5  0 10 -1.5  0 10 -0.5  0 10 0.5  0 10 1.5  -1.224646799147353e-15 -10 -1.5  -1.224646799147353e-15 -10 -0.5  -1.224646799147353e-15 -10 0.5  -1.224646799147353e-15 -10 1.5  1 -10 2.5  2 -10 2.5  3 -10 2.5  4 -10 2.5  5 -10 2.5  6 -10 2.5  7 -10 2.5  8 -10 2.5  9 -10 2.5  10 -10 1.5  10 -10 0.5  10 -10 -0.5  10 -10 -1.5  10 -9 2.5  10 -8 2.5  10 -7 2.5  10 -6 2.5  10 -5 1.5  10 -5 0.5  10 -5 -0.5  10 -5 -1.5  1 -5 2.5  2 -5 2.5  3 -5 2.5  4 -5 2.5  5 -5 2.5  6 -5 2.5  7 -5 2.5  8 -5 2.5  9 -5 2.5  -6.123233995736767e-16 -5 -1.5  -6.123233995736767e-16 -5 -0.5  -6.123233995736767e-16 -5 0.5  -6.123233995736767e-16 -5 1.5  -0.9754516100806412 4.903926402016152 2.5  -1.913417161825449 4.619397662556434 2.5  -2.777851165098011 4.157348061512726 2.5  -3.535533905932738 3.535533905932738 2.5  -4.157348061512726 2.777851165098011 2.5  -4.619397662556434 1.913417161825449 2.5  -4.903926402016152 0.9754516100806416 2.5  -5 3.061616997868383e-16 2.5  -4.903926402016152 -0.975451610080641 2.5  -4.619397662556434 -1.913417161825449 2.5  -4.157348061512726 -2.77785116509801 2.5  -3.535533905932738 -3.535533905932737 2.5  -2.777851165098011 -4.157348061512726 2.5  -1.913417161825447 -4.619397662556434 2.5  -0.9754516100806386 -4.903926402016153 2.5  0 5 -1.5  0 5 -0.5  0 5 0.5  0 5 1.5  1 5 2.5  2 5 2.5  3 5 2.5  4 5 2.5  5 5 2.5  6 5 2.5  7 5 2.5  8 5 2.5  9 5 2.5  10 9 2.5  10 8 2.5  10 7 2.5  10 6 2.5  1 10 2.5  2 10 2.5  3 10 2.5  4 10 2.5  5 10 2.5  6 10 2.5  7 10 2.5  8 10 2.5  9 10 2.5  10 10 -1.5  10 10 -0.5  10 10 0.5  10 10 1.5  10 5 -1.5  10 5 -0.5  10 5 0.5  10 5 1.5  -50 -50 -40  -50 -50 -30  -50 -50 -20  -50 -50 -10  -50 -50 0  -50 -50 10  -50 -50 20  -50 -50 30  -50 -50 40  -50 -40 50  -50 -30 50  -50 -20 50  -50 -10 50  -50 0 50  -50 10 50  -50 20 50  -50 30 50  -50 40 50  -50 50 -40  -50 50 -30  -50 50 -20  -50 50 -10  -50 50 0  -50 50 10  -50 50 20  -50 50 30  -50 50 40  -50 -40 -50  -50 -30 -50  -50 -20 -50  -50 -10 -50  -50 0 -50  -50 10 -50  -50 20 -50  -50 30 -50  -50 40 -50  -40 -50 -50  -30 -50 -50  -20 -50 -50  -10 -50 -50  0 -50 -50  10 -50 -50  20 -50 -50  30 -50 -50  40 -50 -50  50 -50 -40  50 -50 -30  50 -50 -20  50 -50 -10  50 -50 0  50 -50 10  50 -50 20  50 -50 30  50 -50 40  -40 -50 50  -30 -50 50  -20 -50 50  -10 -50 50  0 -50 50  10 -50 50  20 -50 50  30 -50 50  40 -50 50  -40 50 50  -30 50 50  -20 50 50  -10 50 50  0 50 50  10 50 50  20 50 50  30 50 50  40 50 50  50 -40 50  50 -30 50  50 -20 50  50 -10 50  50 0 50  50 10 50  50 20 50  50 30 50  50 40 50  -40 50 -50  -30 50 -50  -20 50 -50  -10 50 -50  0 50 -50  10 50 -50  20 50 -50  30 50 -50  40 50 -50  50 50 -40  50 50 -30  50 50 -20  50 50 -10  50 50 0  50 50 10  50 50 20  50 50 30  50 50 40  50 -40 -50  50 -30 -50  50 -20 -50  50 -10 -50  50 0 -50  50 10 -50  50 20 -50  50 30 -50  50 40 -50  0.9692721743197217 -5.795293684244037 -2.5  0.9692202670256413 5.795426243422052 -2.5  -8.980398982858906 2.634994465690968e-06 -2.5  -3.985798290130022 8.58232785381375 -2.5  -3.985711301933529 -8.582304118051123 -2.5  5.988374633259582 -8.650486060650344 -2.5  8.478101607978914 -7.223598610354291 -2.5  5.991098905854328 -5.802770188695867 -2.5  -6.525363536125814 1.44334798111532 -2.5  -6.525380027437349 -1.443344736724756 -2.5  5.988429758287031 8.6506506700362 -2.5  8.478031627358776 7.223643219995114 -2.5  5.991170967389245 5.802700224052105 -2.5  -8.883642261027664 2.852330716293782 -2.5  -8.883557139269088 -2.852299790914404 -2.5  -1.517569880573316 7.222189193513247 -2.5  0.9847722557209712 8.650828012529661 -2.5  3.485992893901293 7.220502238905611 -2.5  -1.517554526432253 -7.222174513985856 -2.5  0.9849764478229924 -8.650838433154096 -2.5  3.486045029906534 -7.220543104485401 -2.5  -4.020318569980245 -5.778815424517344 -2.5  -6.346170637884454 -7.15133539829932 -2.5  -6.520249744562942 -4.333525246116508 -2.5  -4.020301169800542 5.778778520256496 -2.5  -6.520209940027225 4.333509266683848 -2.5  -6.346178778736905 7.151338745493236 -2.5  -8.979022945415663 1.402919842468693 -2.5  -8.979534523061664 -1.4026657703922 -2.5  -2.607387680833765 9.21379570422487 -2.5  -2.760950553243164 7.938111704821278 -2.5  -1.48565317871474 8.655846011820403 -2.5  -0.1881264236251513 9.314188403115232 -2.5  -0.2647665759321682 7.942353887204384 -2.5  -0.2710554114425561 6.507028668557418 -2.5  0.9834919145038458 7.222265330167346 -2.5  2.223100794017683 6.50346719211467 -2.5  3.49126112331399 5.688452045330026 -2.5  4.738411162669745 7.942524057247647 -2.5  4.749816410538106 6.503507722754289 -2.5  5.987625569257957 7.222494475396622 -2.5  7.172443980994683 9.317604453733809 -2.5  7.236795238861574 7.942787637940787 -2.5  8.479028059208337 8.663854449043031 -2.5  9.597610863323572 9.252462886276602 -2.5  9.497473079823813 7.959232227801062 -2.5  9.584024032445605 6.519180468153731 -2.5  8.486084403255472 5.689589952322033 -2.5  7.226505409157618 6.503483572870346 -2.5  4.810018698039025 9.317874326845887 -2.5  3.486868750831556 8.666010368544313 -2.5  2.23351682103944 7.942602774818795 -2.5  2.170139705176668 9.318149059883888 -2.5  -2.760609366913841 -7.937966749501626 -2.5  -2.607543730961308 -9.213927257251257 -2.5  -1.485601581736419 -8.655866100019979 -2.5  -0.2711079751156193 -6.507125354438587 -2.5  -0.264794750512272 -7.942300507066339 -2.5  0.9835802585727372 -7.222203477608533 -2.5  -0.1880954459361588 -9.314092457743758 -2.5  2.223473543556111 -6.503153099259391 -2.5  3.491502673545089 -5.688484787253908 -2.5  4.749925124247714 -6.503485608056579 -2.5  4.738283808233729 -7.942582325364333 -2.5  5.987503153703957 -7.222512268854545 -2.5  7.236654022159899 -7.942535392205131 -2.5  7.17230292400538
[...]
<PointData  Vectors="f_32"> 
<DataArray  type="Float64"  Name="f_32"  NumberOfComponents="3" format="ascii">-6.7420409579998911e-02 8.3103647719594675e-03 1.6418216296988891e-02  -6.9830947512963842e-02 -5.0544558820127356e-03 2.1496476399668132e-02  3.1181953201692592e-02 -2.1010335046275699e-01 -2.1292817150687685e-01  9.5340707184353684e-04 1.8298625261189641e-01 -2.3312177217949159e-01  1.5663085440669491e-02 -4.1767701674692459e-02 -4.9725724286821656e-02  1.7728349282689210e-02 3.9849394335350931e-02 -4.7061259683241770e-02  -6.6579301567348276e-03 -2.1796220790024079e-01 -2.1659638733774994e-01  5.1007376412774308e-02 1.7326010919963764e-01 -1.8749868330344238e-01  -6.9254636264397387e-02 1.3290527655115280e-02 -9.7199832021629875e-03  -6.9957614695158626e-02 -2.0148064031336485e-03 -2.2361033682102530e-02  2.5149638411173320e-02 -1.9263820113009400e-01 1.7743229513701231e-01  3.6751423510620405e-02 1.8150033544845112e-01 2.0876897548414849e-01  2.3060269901234220e-02 -3.7774861989054831e-02 4.7800581387872111e-02  1.9189935171682351e-02 3.0540076458534772e-02 5.0523695129754603e-02  -4.8474465227393251e-02 -2.0214880991140602e-01 2.3139157678994871e-01  4.2464615045856885e-02 2.2491138359660312e-01 2.0823669635638559e-01  -6.3283320533796895e-06 -6.5351994484140037e-06 6.4504255197236694e-06  5.7965708136290037e-06 4.6635702538052777e-06 5.0759016971731578e-06  -2.9597218243559129e-06 -1.9220062862302300e-06 3.0352385926165227e-06  7.2961938173359816e-07 2.0499023285311740e-06 -7.3568126559361640e-08  3.8100777943954694e-06 -4.7111765273530958e-06 -1.9086533234990538e-06  6.0168426846198214e-06 -5.2000934820411313e-06 1.2921072038003689e-05  -4.9438826607222409e-06 -5.3213742803380435e-06 -1.0382201922421572e-06  -1.2027457355013032e-06 4.4811624003111209e-07 -5.3220229774557601e-07  -9.8603496856328354e-02 3.1477733942398274e-03 6.6381625903861152e-02  -7.6208491203423087e-02 -2.9218442624613251e-02 9.0339124795591419e-02  -9.8202435476717961e-02 -5.2410904196845860e-02 1.1028908074798148e-01  -5.7376322444773920e-02 -7.0973888485034359e-02 1.3461982928928212e-01  -7.5353423544730735e-02 -5.9906367725335447e-02 1.8409272228027532e-01  -8.7242393790612049e-02 -5.0880128413802954e-02 2.2200864517005511e-01  -5.2239162668155481e-02 -4.8949039899573450e-02 2.5250541093868056e-01  -6.0395707949990010e-02 -8.7343679842436212e-02 3.0105523275545398e-01  3.3272550469995370e-03 -4.1000771125571177e-02 3.7219144878598776e-01  -6.3269077582101124e-02 -6.7846155337462966e-02 3.6095334062123441e-01  9.5735415683665323e-02 -9.1886986417749922e-02 3.3793906303934329e-01  -1.9929875782797472e-02 -4.0981614950647380e-02 3.9161503591348390e-01  1.7716688451462244e-02 -6.4766295631901574e-02 4.2196804198231413e-01  8.8392418345315752e-03 8.8155248014495631e-04 4.2511109609193048e-01  -5.3919439888243442e-03 -2.6698332181890848e-02 4.5051456951154045e-01  9.3553237084227553e-02 -3.5879636434967424e-03 4.1361658271534590e-01  -8.2149526239450793e-02 1.4070790315592569e-02 4.7711351460655177e-01  1.0574731037144645e-02 1.0537599696428071e-02 4.4234099774049068e-01  2.0149973529104546e-02 3.8685551426692770e-02 3.8686593084361204e-01  -6.3222376938867952e-02 6.0108333676766781e-02 4.0560942580600351e-01  6.4039255215103674e-02 1.2047926786125519e-01 3.7745411320200351e-01  -8.2148578703648251e-02 2.4662437888192470e-02 3.4751079013866965e-01  4.7013715862595428e-03 6.4380724684281548e-02 3.4463322916023975e-01  -1.0940404064269885e-01 1.2598532932528543e-02 2.9585052573979326e-01  -5.0677738060358753e-02 8.8932901005934650e-02 2.7252240070076622e-01  -5.8392211934443314e-02 5.4804397556159450e-02 2.1711582712083896e-01  -8.2805747988171322e-02 7.7472118013946198e-02 1.9333077392033096e-01  -7.8734205778627359e-02 4.6118223954436793e-02 1.6154485521707279e-01  -8.2342513981241441e-02 4.2948949826434060e-02 1.1780975452853472e-01  -9.4171175882273209e-02 1.9500254331754906e-02 7.8496703147327263e-02  -1.0042134612569875e-01 -5.9960039240994347e-03 5.3042721597079373e-02  -5.8785351029974883e-02 -1.3281552793339618e-02 6.3337329411309292e-03  -4.9606346034330312e-02 -1.8051877790597051e-02 -1.2454377570790087e-03  -4.7769223404086618e-02 -1.7649714267115080e-02 -5.1817628908515361e-03  -4.9800083505571552e-02 -2.0199846227077243e-02 -1.0450646445406272e-02  -5.2818440991271295e-02 -2.5352228567176085e-02 -1.6222627968516271e-02  -6.4072250888453613e-02 -3.8376614320065894e-02 -2.9054315244828814e-02  -7.0606534939847865e-02 -5.2052297860454150e-02 -3.9674087528168082e-02  -9.5336181804265771e-02 -7.1290254217594107e-02 -7.0866400543229763e-02  -1.0801265157614329e-01 -1.0092065735966485e-01 -9.7182903671543835e-02  5.1287585071231608e-02 -1.2835832954175641e-01 -3.5974210391651551e-01  5.8425647322081192e-02 -3.7248248826218223e-02 -3.6740058424217414e-01  1.6090049820723526e-01 3.4390710727245671e-02 -3.8882998820237930e-01  -4.8222779414450245e-02 9.7344917866959355e-02 -4.3282961854930019e-01  -6.6234132679332440e-03 -3.2592023713542868e-02 -2.4502713866744855e-02  -1.8604754311959890e-02 -2.1744857887790549e-02 -1.8633007817820232e-02  -2.8502257427226299e-02 -1.4313953073520137e-02 -1.6235444846252417e-02  -3.5753105422673230e-02 -7.1943982267536188e-03 -1.7774856134449731e-02  -4.6221504765059124e-02 6.0543975166826196e-04 -2.1315952542753491e-02  -5.7456561843419109e-02 8.3999199755082424e-03 -2.9515636539863561e-02  -7.0932490399076800e-02 2.6546123521348598e-02 -4.3891137395836222e-02  -8.4910194383328474e-02 4.8684622086437250e-02 -7.2246545041724244e-02  -1.0861070796180820e-01 1.0633402853428837e-01 -1.1038365740005787e-01  2.9136068643874184e-02 6.3224234251822511e-02 -9.1615181353945502e-02  1.7537157065464958e-02 6.7490279488952781e-02 -1.4483487617771759e-01  4.1799142675369516e-03 9.8919961866701975e-02 -2.3592004465843627e-01  -9.9120864129776387e-02 1.7051266622455144e-01 -3.3475381120317727e-01  -4.0064966231885393e-02 5.6883780026231082e-02 -2.7640735356326801e-01  -3.6650917060766140e-02 7.3173808633336043e-02 -3.1275003527531314e-01  -9.9301884374400032e-02 -2.4745857777467152e-03 -3.5387502862766057e-01  -1.8377859042283071e-01 1.1128797246829433e-02 -4.7973260151370256e-01  -6.6281828349445820e-02 -1.2176146266833717e-02 -3.3275653650692388e-01  -6.9810387735378648e-02 -5.3249902577954672e-02 -3.6882395880547525e-01  -6.6419026108482299e-02 -1.0960910789226251e-01 -3.3616713487498628e-01  -4.9832121009325880e-02 -8.3060541675961733e-02 -3.1790545893402666e-01  4.1309134477398634e-03 -1.0683002142639725e-01 -2.5300615712671432e-01  3.4343879228643889e-02 -3.7800728192068783e-02 -1.6263309259628952e-01  3.5279168004746224e-02 -7.8573383444075315e-02 -1.1193035073323133e-01  -4.7572239917689080e-03 3.1517513341612326e-02 -2.3803606379775178e-02  -2.0931970220226904e-02 2.1321103680057352e-02 -1.8956366281600186e-02  -2.7005286987041879e-02 1.3618152697372016e-02 -1.4569644319232683e-02  -3.5854210586762345e-02 6.6722578421719008e-03 -1.7805198829651148e-02  -4.5744562447005213e-02 9.2009116003846712e-04 -2.2106509246372655e-02  -5.5889662125604221e-02 -9.4514140904495229e-03 -2.8479246811425087e-02  -7.2134487574714232e-02 -2.5103873510490156e-02 -4.0958105175300789e-02  -7.9048214083074678e-02 -4.8045615158611027e-02 -6.1978081213703566e-02  -1.2969002093656018e-01 -9.3324964829481369e-02 -1.0296607793109613e-01  7.6782403020834472e-02 1.3953983556914701e-01 -3.6785700473652877e-01  6.1451330334504116e-04 3.6438547523288387e-02 -4.7462451714821807e-01  4.3787234909521917e-02 -2.2730687595559143e-02 -4.0765208272565140e-01  8.6742869328408523e-02 -8.2412539402971011e-02 -3.5853049898432710e-01  -6.0337451798799333e-02 1.3703774062994646e-02 5.6118321188162283e-03  -5.0674473496987962e-02 1.7600289322922413e-02 -8.4998316422828278e-04  -4.7699377677899488e-02 1.8250672959645619e-02 -5.1137155563320182e-03  -4.8770971353150235e-02 2.2406133416211289e-02 -9.8170906656569919e-03  -5.4408850036134250e-02 2.6263405003777621e-02 -1.6469117880073582e-02  -6.2611597292972526e-02 3.3223110398775374e-02 -2.6922261544570687e-02  -7.9099604908094728e-02 4.2152011554862347e-02 -3.5905743288808037e-02  -8.2625248712285090e-02 7.5744639222772747e-02 -6.7156387053027275e-02  -1.2783600530352607e-01 1.1084365522721623e-01 -9.9054729267115629e-02  -8.0696243366787990e-02 4.4613916231673696e-03 -4.0030021693290209e-02  -1.0787620860261010e-01 -3.2893902475928584e-02 -6.1441465314926322e-02  -6.6628673247688897e-02 -6.1085282811016030e-02 -8.9532367289278200e-02  -6.6414072762448872e-02 -6.0610445486679806e-02 -1.1857931784060090e-01  -8.8139492637100442e-02 -1.0116248764753623e-01 -1.8962657230844740e-01  -2.3029333362429783e-02 -1.2988641494634726e-01 -1.7335581834934749e-01  -4.0259722592292053e-02 -6.0096901619903928e-02 -2.4233032101872698e-01  4.9647228242643855e-04 -1.1891232456008285e-01 -2.9920061220492900e-01  -7.6413446380934433e-02 -3.4794404275139072e-02 -3.3526770098511938e-01  -5.7284553443262970e-02 -3.6328748318505528e-02 -3.5866737841653296e-01  1.1845874252683841e-01 -1.4493470748203124e-01 -3.3988824510162763e-01  -1.1095694086965667e-01 3.6577138284137625e-02 -3.8527160281905198e-01  9.6173590772532531e-03 -5.2372215118460734e-02 -3.8830615797236129e-01  1.1569518754450907e-01 -3.2338243664213895e-02 -3.4240645431711936e-01  1.3047165460585229e-03 -4.5247925162161140e-02 -4.1341067069183352e-01  1.3375388333185089e-02 6.5126933744056315e-03 -3.9214055906763995e-01  7.1887329350396864e-02 1.9923926484121345e-02 -4.0261959965333177e-01  8.5607073046543108e-02 4.1792742446324686e-02 -3.8660427440557360e-01  1.9514351909513866e-02 2.2951808024284120e-02 -4.1663645883899619e-01  -1.1624985782146538e-01 3.0004912025219196e-02 -4.4705662294780490e-01  -5.9921340041677693e-02 4.0073755093637184e-03 -4.0311277928086930e-01  -8.4599511242227005e-02 5.1587379466777494e-02 -3.7567905505961990e-01  2.0707062647491427e-02 8.4470194993907233e-02 -2.9653227694895073e-01  -5.5839904758311874e-02 9.3568468318793785e-02 -2.8824605069284437e-01  -1.8272556105526222e-02 8.6219900313213568e-02 -2.1856778738957702e-01  -1.1305156781016557e-01 1.3797941987842031e-02 -2.2574142330291855e-01  -8.4233574602692790e-02 5.3266097650068012e-02 -2.0053084867766210e-01  -6.8488160243053917e-02 5.4520544920774433e-02 -1.5320185033717970e-01  -9.3740127294893991e-02 5.4793141384153962e-02 -1.2429878469365634e-01  -8.3365316640606424e-02 1.6343107089291178e-02 -7.4365923000356784e-02  -9.2273113397601567e-02 1.4362893206508496e-02 -5.4788879161188575e-02  -9.6976006926874289e-02 1.7171277278058214e-02 1.4797648032704089e-02  -9.9564792043623923e-02 8.7150126545619582e-05 8.2240550567428006e-03  -9.4412195518156120e-02 1.5992188493889135e-02 -4.5516549989972396e-03  -8.3702437573802857e-02 4.3866659545750098e-03 -1.3849860782669331e-02  -9.6062991437959835e-02 -1.5058789060135443e-02 1.5395334940987019e-02  -9.6834506093726583e-02 -7.0219538660762516e-03 2.2556061305775451e-03  -9.1780124439368421e-02 -1.3674121916144354e-02 -3.7653056823655899e-03  -8.6711588536785206e-02 -7.3652992058159126e-03 -1.4030492438533939e-02  -5.8755384289258854e-02 -1.2841190654391004e-02 -4.4693311404250327e-03  -4.8875253649548665e-02 -1.9348510012431208e-02 1.6390907691263745e-03  -4.8263758478547268e-02 -1.9156852616046730e-02 5.5968834833574118e-03  -4.8037621392480634e-02 -2.1068758016002064e-02 9.5979599814499973e-03  -5.5822043769190671e-02 -2.5579531069558369e-02 1.5071689732516781e-02  -5.8159079352167950e-02 -3.1531636043426216e-02 2.3598687875649851e-02  -7.4007615501919283e-02 -4.6838226473688453e-02 4.0882285834434873e-02  -8.3048456847773899e-02 -6.6097942640003834e-02 6.9751483451775675e-02  -1.1633732389118584e-01 -1.2347435167398739e-01 9.0707535148735918e-02  6.2678011721376423e-02 -3.7857002557049763e-01 1.2207445458462095e-01  5.6934201543289084e-02 -3.8432524092492981e-01 4.1290215671325688e-02  3.8453652958297807e-02 -3.6952344355349559e-01 -4.6813599284072166e-02  2.5684720440349182e-02 -3.6209292958172240e-01 -1.0855399667197965e-01  9.1211770434725559e-02 -1.5700907387112614e-01 3.9372449976416868e-01  -1.9192742024077735e-02 -3.2113058695532319e-02 4.0548566915556228e-01  1.0801883008327974e-01 2.5482468728916220e-02 3.8120251353934259e-01  -4.7437244813214166e-02 9.6537400215238378e-02 4.7924605075108762e-01  1.0014891623848877e-01 3.7338685623023371e-01 1.2875378612039837e-01  2.3704232337555347e-02 3.8080698396890600e-01 4.0018451256440678e-02  -1.1316687676091007e-02 3.2722256145846929e-01 -4.1775296271388485e-02  6.3194920022747708e-02 2.7423099918056437e-01 -9.8183054177542819e-02  -6.3500876737791426e-03 -3.1524220279272631e-02 2.3513407262208158e-02  -1.8249130670989998e-02 -2.0828458251780368e-02 1.6988189901091539e-02  -2.7596809002291660e-02 -1.2577270100434832e-02 1.7283732250576195e-02  -3.6831396353621183e-02 -6.6421311861812457e-03 1.7892826474024681e-02  -4.5490971193318276e-02 -2.9660248779922162e-04 2.0377492149944474e-02  -5.7278991068169728e-02 1.0408992474292668e-02 2.5669101920713509e-02  -6.6886695030254809e-02 2.4913949968677074e-02 4.6322023807029503e-02  -9.4622080058212002e-02 3.7314415012613886e-02 5.6207420844069406e-02  -1.0245554457911911e-01 8.2940474123549490e-02 9.9301070318573409e-02  4.5245403911776456e-02 -4.8335699070263173e-02 -3.1419736831523222e-02  4.9771270324192103e-02 -5.5868467282564983e-02 -8.7122649210030264e-03  5.1660331691093249e-02 -7.6199530039322533e-02 9.9148745987312110e-03  4.5496154448520128e-02 -4.9034004491876046e-02 2.3518031683809247e-02  2.9214239354857913e-02 6.5873254192637787e-02 9.1984160995377845e-02  3.1465729202571339e-02 5.4306878984964169e-02 1.4714019025485259e-01  1.0229487075579174e-02 7.6438183055537456e-02 2.0791285203129237e-01  2.4247980572045347e-02 6.1498552663230829e-02 2.2106817911382412e-01  -9.0063305003345334e-02 7.3288533216193330e-02 2.7986722736920433e-01  -7.1339195497157365e-02 4.4147881427518680e-02 2.7818580958568162e-01  -1.5227340050199637e-02 6.0695612761438922e-02 4.0407088508158395e-01  -6.7407403437883553e-02 -5.2627764743873092e-03 3.9538941238251885e-01  -5.4520217779020955e-02 -4.3898101903879008e-02 3.3941142997144585e-01  -7.6307347942504433e-02 -6.0587214400506413e-02 2.7466224675734113e-01  -5.4547444829631329e-02 -3.1469960450648544e-02 3.0919745376524771e-01  5.3362819502522044e-02 -4.0051127372810615e-02 2.5552139450282924e-01  2.3005782357045063e-02 -6.2995895125963625e-02 2.0157204051034844e-01  2.1671982148822679e-02 -5.8117987954512319e-02 1.3709531964991625e-01  3.6482809616130284e-02 -5.4538548889792725e-02 9.6331567800027190e-02  4.7621800283845245e-02 5.5905122499410813e-02 -2.2531619829137404e-02  5.8024101349927810e-02 6.2302105118372288e-02 -1.0995027365078635e-02  5.0280146200885410e-02 5.8278556235397773e-02 9.6734296327957575e-03  6.0185168198601341e-02 3.6056432998365376e-02 2.4707900299070169e-02  -4.9885156993379719e-03 2.9121861488913939e-02 2.7093694848931347e-02  -1.9278596362398905e-02 2.0435774267309165e-02 1.6771883417099724e-02  -2.8067700912189637e-02 1.3831779064466740e-02 1.5461979653589201e-02  -3.7467888332816994e-02 5.2250014787992138e-03 1.8582612511413250e-02  -4.4660656120337941e-02 -7.0781813273383014e-04 2.1091121199914558e-02  -5.5909436949195417e-02 -9.3594975163023789e-03 2.8060210919807597e-02  -7.2206113444775635e-02 -2.3548666401662071e-02 4.1316407690421449e-02  -7.9310101823393389e-02 -5.3526215125483549e-02 6.7496650752507922e-02  -1.2462325306915392e-01 -9.6984773754920817e-02 9.9905094106534906e-02  -8.3651776644356381e-03 1.4503596095019555e-01 4.0390118926187363e-01  4.8801013900993687e-02 3.8591197151311520e-02 4.2855086820216176e-01  7.7883566016827568e-02 -2.6167598195083547e-02 4.0900558177642682e-01  3.2858582988182707e-02 -9.6752881765337528e-02 3.7847993378346190e-01  -5.8443381887593973e-02 1.1764244709857933e-02 -7.2538609238101213e-03  -5.1008417915772854e-02 1.7451527442320758e-02 1.8919119559105153e-03  -4.7675471090014930e-02 1.9755867358004039e-02 6.2924494727243591e-03  -4.9677853242752736e-02 2.1892103282347558e-02 9.7868026451696285e-03  -5.4988684473719067e-02 2.9021682104084987e-02 1.7371216041551906e-02  -6.0770969145545646e-02 3.2623716806114658e-02 2.5066646078007248e-02  -8.0806571935878826e-02 4.4862830808749851e-02 3.7221060698672155e-02  -8.3604804796648224e-02 7.0941320290620363e-02 5.7789028254043168e-02  -1.2268177267857412e-01 9.1465915709573062e-02 1.0968562014214032e-01  7.4260753044492825e-02 3.0500244501652279e-01 -1.1373540396130617e-01  -1.7625581783673714e-02 3.9193073166465897e-01 -4.1148613042558603e-02  5.9565390945403668e-02 4.0397259133043095e-01 4.2244478651097331e-02  6.8425192627432435e-02 3.6202736009150266e-01 9.7275941575238667e-02  -4.8228611734453999e-03 -3.4376797347060317e-01 -1.3736204144704942e-01  6.7693887534932386e-03 -3.5065061234084816e-01 -1.5309610760735250e-02  -1.0597580440321280e-02 -3.5786735648796164e-01 3.7400348099518574e-02  2.1498878589486736e-02 -3.2084669615556227e-01 1.0070998852704083e-01  2.8093069814290935e-05 1.9521695948035334e-05 1.8198718097259420e-06  6.6686541997388420e-06 6.9417868714294937e-06 -6.5925827882492776e-06  2.9372702143041720e-05 2.8197771007594759e-05 3.7839286748912455e-06  1.7506364828276528e-05 5.9537924176847947e-05 4.6511883031379961e-06  6.0240185411079216e-05 8.5700672183401262e-05 8.2309104173327199e-06  5.4736737900546817e-05 8.4188893545487711e-05 -3.8394306317343800e-06  3.1469086989341789e-05 6.5002668641400818e-05 -5.1531607353093174e-06  1.2626492849680213e-05 5.5167765083525107e-06 6.2285774831925337e-06  4.9871929799590856e-06 1.3637217699801391e-05 4.7695544035430603e-07  7.6721544666369855e-07 -5.1451919717836216e-06 -4.3489829634425793e-07  4.8063921511735256e-05 -1.3278910069017484e-05 -5.3789693130436852e-05  7.3242424623506524e-05 -7.6798530848230742e-06 -8.3954191544322100e-05  1.1223699146095269e-04 4.2985113508257439e-06 -1.0019173998327225e-04  1.6670637929941451e-05 2.3233213154445133e-05 -3.9907018947066717e-05  6.5725128815586424e-05 3.1747179596239579e-05 -7.2044616211268850e-05  6.1129065125222086e-05 -7.5684370870881827e-06 -5.9191194330301128e-05  3.0350624154627229e-05 4.2755335145487683e-07 -4.9221965482900532e-05  5.8159656870983706e-06 -5.4409721707206952e-06 -1.4280921793214591e-05  2.3674927184905544e-05 -1.6793854277888077e-05 1.9281519982357735e-06  2.5017756963697237e-05 -2.7853325308908892e-05 -2.0593143497745456e-05  4.7435105695393216e-05 -2.8958836314881950e-05 2.3159840919269947e-05  1.9795936668542383e-05 2.2087754219948561e-05 -2.9969141783412505e-05  1.3641201476431437e-04 -1.5899987009003331e-04 1.7345276802446063e-06  3.2257612961327176e-05 -3.5645481610630122e-05 1.6592585480248887e-05  1.1193714710919053e-05 -1.9499749615324194e-05 -2.9692842642921995e-06  1.2233903913213908e-05 -4.2193937625200094e-06 1.2399504132193169e-05  2.4443560739011474e-05 -2.1497593327772965e-05 -2.8876161152625004e-06  1.6345656434041800e-06 -2.5876267560086851e-06 -2.6922985468733812e-06  1.9149342569605023e-05 1.7398847236778528e-05 1.3063139796637333e-05  6.2253348219831417e-05 -1.6757188891052833e-05 6.7502683620993315e-05  1.1102559895926615e-04 2.3252351290891240e-06 1.0237278978389037e-04  5.8377946218560055e-05 1.2920945853905390e-05 8.2866554644544759e-05  4.9451864905926912e-05 -9.9394826919865065e-06 7.5242879849678313e-05  2.7916762053121742e-05 2.5361607728625629e-05 9.9842656849210993e-05  2.1884084829965199e-07 -2.3390905010984286e-05 3.4986827847013353e-05  -6.7611250885827713e-06 -8.4206155460183338e-06 -1.3674547532005209e-05  2.6767163744262490e-06 2.6315606777675791e-05 1.2964719735971315e-05  1.9803640565416401e-06 1.4774096759344834e-05 2.8553333578241514e-06  -3.3090815687540862e-06 7.6472736237781609e-06 1.6409399762301365e-05  7.0782483205731264e-06 5.9561810602439228e-06 1.7514907652213805e-06  3.5470030665631905e-06 1.2055281885554645e-05 4.6263424138867474e-06  -8.5481868077035056e-06 -1.0074297042857061e-05 -8.3557534604750778e-06 