<?xml version="1.0"?>
<VTKFile type="UnstructuredGrid"  version="0.1"  >
<UnstructuredGrid>
<Piece  NumberOfPoints="24722" NumberOfCells="250">
<Points>
<DataArray  type="Float64"  NumberOfComponents="3"  format="ascii">1.6 25 0  1.6 -25 0  0 -25 0  0 25 0  1.6 15 0  1.6 5 0  1.6 -5 0  1.6 -15 0  0 -15 0  0 -5 0  0 5 0  0 15 0  1.6 25 10  1.6 -25 10  0 -25 10  0 25 10  1.6 15 10  1.6 5 10  1.6 -5 10  1.6 -15 10  0 -15 10  0 -5 10  0 5 10  0 15 10  1.6 25 20  1.6 -25 20  0 -25 20  0 25 20  1.6 15 20  1.6 5 20  1.6 -5 20  1.6 -15 20  0 -15 20  0 -5 20  0 5 20  0 15 20  1.6 25 30  1.6 -25 30  0 -25 30  0 25 30  1.6 15 30  1.6 5 30  1.6 -5 30  1.6 -15 30  0 -15 30  0 -5 30  0 5 30  0 15 30  1.6 25 40  1.6 -25 40  0 -25 40  0 25 40  1.6 15 40  1.6 5 40  1.6 -5 40  1.6 -15 40  0 -15 40  0 -5 40  0 5 40  0 15 40  1.6 25 50  1.6 -25 50  0 -25 50  0 25 50  1.6 15 50  1.6 5 50  1.6 -5 50  1.6 -15 50  0 -15 50  0 -5 50  0 5 50  0 15 50  1.6 25 60  1.6 -25 60  0 -25 60  0 25 60  1.6 15 60  1.6 5 60  1.6 -5 60  1.6 -15 60  0 -15 60  0 -5 60  0 5 60  0 15 60  2.1 65 63.2  2.1 65 60  2.1 15 60  2.1 15 63.2  2.1 55 60  2.1 45 60  2.1 35 60  2.1 25 60  2.1 25 63.2  2.1 35 63.2  2.1 45 63.2  2.1 55 63.2  10 65 63.2  10 65 60  10 15 60  10 15 63.2  10 55 60  10 45 60  10 35 60  10 25 60  10 25 63.2  10 35 63.2  10 45 63.2  10 55 63.2  20 65 63.2  20 65 60  20 15 60  20 15 63.2  20 55 60  20 45 60  20 35 60  20 25 60  20 25 63.2  20 35 63.2  20 45 63.2  20 55 63.2  30 65 63.2  30 65 60  30 15 60  30 15 63.2  30 55 60  30 45 60  30 35 60  30 25 60  30 25 63.2  30 35 63.2  30 45 63.2  30 55 63.2  40 65 63.2  40 65 60  40 15 60  40 15 63.2  40 55 60  40 45 60  40 35 60  40 25 60  40 25 63.2  40 35 63.2  40 45 63.2  40 55 63.2  50 65 63.2  50 65 60  50 15 60  50 15 63.2  50 55 60  50 45 60  50 35 60  50 25 60  50 25 63.2  50 35 63.2  50 45 63.2  50 55 63.2  60 65 63.2  60 65 60  60 15 60  60 15 63.2  60 55 60  60 45 60  60 35 60  60 25 60  60 25 63.2  60 35 63.2  60 45 63.2  60 55 63.2  80 65 63.2  80 65 60  80 15 60  80 15 63.2  80 55 60  80 45 60  80 35 60  80 25 60  80 25 63.2  80 35 63.2  80 45 63.2  80 55 63.2  100 65 63.2  100 65 60  100 15 60  100 15 63.2  100 55 60  100 45 60  100 35 60  100 25 60  100 25 63.2  100 35 63.2  100 45 63.2  100 55 63.2  110 65 63.2  110 65 60  110 15 60  110 15 63.2  110 55 60  110 45 60  110 35 60  110 25 60  110 25 63.2  110 35 63.2  110 45 63.2  110 55 63.2  122.1 65 63.2  122.1 65 60  122.1 15 60  122.1 15 63.2  122.1 55 60  122.1 45 60  122.1 35 60  122.1 25 60  122.1 25 63.2  122.1 35 63.2  122.1 45 63.2  122.1 55 63.2  124.5 65 60  124.5 15 60  122.9 15 60  122.9 65 60  124.5 55 60  124.5 45 60  124.5 35 60  124.5 25 60  122.9 25 60  122.9 35 60  122.9 45 60  122.9 55 60  124.5 65 50  124.5 15 50  122.9 15 50  122.9 65 50  124.5 55 50  124.5 45 50  124.5 35 50  124.5 25 50  122.9 25 50  122.9 35 50  122.9 45 50  122.9 55 50  124.5 65 40  124.5 15 40  122.9 15 40  122.9 65 40  124.5 55 40  124.5 45 40  124.5 35 40  124.5 25 40  122.9 25 40  122.9 35 40  122.9 45 40  122.9 55 40  124.5 65 30  124.5 15 30  122.9 15 30  122.9 65 30  124.5 55 30  124.5 45 30  124.5 35 30  124.5 25 30  122.9 25 30  122.9 35 30  122.9 45 30  122.9 55 30  124.5 65 20  124.5 15 20  122.9 15 20  122.9 65 20  124.5 55 20  124.5 45 20  124.5 35 20  124.5 25 20  122.9 25 20  122.9 35 20  122.9 45 20  122.9 55 20  124.5 65 10  124.5 15 10  122.9 15 10  122.9 65 10  124.5 55 10  124.5 45 10  124.5 35 10  124.5 25 10  122.9 25 10  122.9 35 10  122.9 45 10  122.9 55 10  124.5 65 0  124.5 15 0  122.9 15 0  122.9 65 0  124.5 55 0  124.5 45 0  124.5 35 0  124.5 25 0  122.9 25 0  122.9 35 0  122.9 45 0  122.9 55 0  -50 -75 50  50 -75 50  75 -50 50  75 50 50  50 75 50  -50 75 50  -75 50 50  -75 -50 50  -50 -100 50  50 -100 50  -100 -50 50  100 -50 50  -100 50 50  100 50 50  -50 100 50  50 100 50  -50 -100 -50  50 -100 -50  -100 -50 -50  100 -50 -50  -100 50 -50  100 50 -50  -50 100 -50  50 100 -50  -50 -75 -50  50 -75 -50  75 -50 -50  75 50 -50  50 75 -50  -50 75 -50  -75 50 -50  -75 -50 -50  2.100000000000001 15 63.2  2.100000000000001 15 60  2.100000000000001 65 63.2  2.100000000000001 65 60  123.7 15 60  126.9 15 63.2  126.9 15 -63.2  2.100000000000001 15 -63.2  2.100000000000001 15 -60  123.7 15 -60  126.9 65 63.2  123.7 65 60  126.9 65 -63.2  2.100000000000001 65 -63.2  2.100000000000001 65 -60  123.7 65 -60  -2.100000000000009 -65 63.2  -126.9 -65 63.2  -2.100000000000009 -65 60  -123.7 -65 60  -123.7 -65 -60  -2.100000000000009 -65 -60  -2.100000000000009 -65 -63.2  -126.9 -65 -63.2  -126.9 -15 63.2  -2.100000000000009 -15 63.2  -126.9 -15 -63.2  -2.100000000000009 -15 -63.2  -123.7 -15 60  -123.7 -15 -60  -2.100000000000009 -15 60  -2.100000000000009 -15 -60  -1.6 -25 63.2  -1.6 -25 -63.2  -1.6 25 63.2  -1.6 25 -63.2  1.6 -25 63.2  1.6 -25 -63.2  1.6 25 63.2  1.6 25 -63.2  -150 -150 150  -150 -150 -150  -150 150 150  -150 150 -150  150 -150 -150  150 -150 150  150 150 150  150 150 -150  -40 -75 50  -30 -75 50  -20 -75 50  -10 -75 50  0 -75 50  10 -75 50  20 -75 50  30 -75 50  40 -75 50  59.56708580912725 -73.09698831278217 50  67.67766952966369 -67.67766952966369 50  73.09698831278216 -59.56708580912726 50  75 -40 50  75 -30 50  75 -20 50  75 -10 50  75 0 50  75 10 50  75 20 50  75 30 50  75 40 50  73.09698831278217 59.56708580912723 50  67.67766952966372 67.67766952966366 50  59.56708580912726 73.09698831278216 50  40 75 50  30 75 50  20 75 50  10 75 50  0 75 50  -10 75 50  -20 75 50  -30 75 50  -40 75 50  -59.56708580912722 73.09698831278217 50  -67.67766952966365 67.67766952966373 50  -73.09698831278216 59.56708580912726 50  -75 40 50  -75 30 50  -75 20 50  -75 10 50  -75 0 50  -75 -10 50  -75 -20 50  -75 -30 50  -75 -40 50  -73.09698831278217 -59.56708580912724 50  -67.67766952966369 -67.67766952966369 50  -59.56708580912726 -73.09698831278216 50  -40 -100 50  -30 -100 50  -20 -100 50  -10 -100 50  0 -100 50  10 -100 50  20 -100 50  30 -100 50  40 -100 50  -99.03926402016153 -59.75451610080642 50  -96.19397662556435 -69.13417161825448 50  -91.57348061512727 -77.77851165098009 50  -85.35533905932738 -85.35533905932738 50  -77.77851165098011 -91.57348061512727 50  -69.13417161825451 -96.19397662556432 50  -59.75451610080643 -99.03926402016151 50  59.75451610080641 -99.03926402016153 50  69.1341716182545 -96.19397662556433 50  77.77851165098009 -91.57348061512727 50  85.35533905932738 -85.35533905932738 50  91.57348061512727 -77.77851165098011 50  96.19397662556432 -69.13417161825453 50  99.03926402016151 -59.75451610080643 50  -100 40 50  -100 30 50  -100 20 50  -100 10 50  -100 0 50  -100 -10 50  -100 -20 50  -100 -30 50  -100 -40 50  100 -40 50  100 -30 50  100 -20 50  100 -10 50  100 0 50  100 10 50  100 20 50  100 30 50  100 40 50  -59.75451610080639 99.03926402016153 50  -69.13417161825444 96.19397662556435 50  -77.77851165098005 91.57348061512731 50  -85.35533905932729 85.35533905932746 50  -91.57348061512721 77.77851165098018 50  -96.19397662556432 69.13417161825453 50  -99.03926402016153 59.75451610080643 50  99.03926402016153 59.75451610080639 50  96.19397662556435 69.13417161825446 50  91.57348061512729 77.77851165098005 50  85.35533905932743 85.35533905932732 50  77.77851165098018 91.57348061512722 50  69.13417161825453 96.19397662556432 50  59.75451610080643 99.03926402016153 50  40 100 50  30 100 50  20 100 50  10 100 50  0 100 50  -10 100 50  -20 100 50  -30 100 50  -40 100 50  -50 -100 40  -50 -100 30  -50 -100 20  -50 -100 10  -50 -100 0  -50 -100 -10  -50 -100 -20  -50 -100 -30  -50 -100 -40  50 -100 40  50 -100 30  50 -100 20  50 -100 10  50 -100 0  50 -100 -10  50 -100 -20  50 -100 -30  50 -100 -40  -40 -100 -50  -30 -100 -50  -20 -100 -50  -10 -100 -50  0 -100 -50  10 -100 -50  20 -100 -50  30 -100 -50  40 -100 -50  -100 -50 40  -100 -50 30  -100 -50 20  -100 -50 10  -100 -50 0  -100 -50 -10  -100 -50 -20  -100 -50 -30  -100 -50 -40  -99.03926402016153 -59.75451610080642 -50  -96.19397662556435 -69.13417161825448 -50  -91.57348061512727 -77.77851165098009 -50  -85.35533905932738 -85.35533905932738 -50  -77.77851165098011 -91.57348061512727 -50  -69.13417161825451 -96.19397662556432 -50  -59.75451610080643 -99.03926402016151 -50  100 -50 40  100 -50 30  100 -50 20  100 -50 10  100 -50 0  100 -50 -10  100 -50 -20  100 -50 -30  100 -50 -40  59.75451610080641 -99.03926402016153 -50  69.1341716182545 -96.19397662556433 -50  77.77851165098009 -91.57348061512727 -50  85.35533905932738 -85.35533905932738 -50  91.57348061512727 -77.77851165098011 -50  96.19397662556432 -69.13417161825453 -50  99.03926402016151 -59.75451610080643 -50  -100 50 40  -100 50 30  -100 50 20  -100 50 10  -100 50 0  -100 50 -10  -100 50 -20  -100 50 -30  -100 50 -40  -100 40 -50  -100 30 -50  -100 20 -50  -100 10 -50  -100 0 -50  -100 -10 -50  -100 -20 -50  -100 -30 -50  -100 -40 -50  100 50 40  100 50 30  100 50 20  100 50 10  100 50 0  100 50 -10  100 50 -20  100 50 -30  100 50 -40  100 -40 -50  100 -30 -50  100 -20 -50  100 -10 -50  100 0 -50  100 10 -50  100 20 -50  100 30 -50  100 40 -50  -50 100 40  -50 100 30  -50 100 20  -50 100 10  -50 100 0  -50 100 -10  -50 100 -20  -50 100 -30  -50 100 -40  -59.75451610080639 99.03926402016153 -50  -69.13417161825444 96.19397662556435 -50  -77.77851165098005 91.57348061512731 -50  -85.35533905932729 85.35533905932746 -50  -91.57348061512721 77.77851165098018 -50  -96.19397662556432 69.13417161825453 -50  -99.03926402016153 59.75451610080643 -50  50 100 40  50 100 30  50 100 20  50 100 10  50 100 0  50 100 -10  50 100 -20  50 100 -30  50 100 -40  99.03926402016153 59.75451610080639 -50  96.19397662556435 69.13417161825446 -50  91.57348061512729 77.77851165098005 -50  85.35533905932743 85.35533905932732 -50  77.77851165098018 91.57348061512722 -50  69.13417161825453 96.19397662556432 -50  59.75451610080643 99.03926402016153 -50  40 100 -50  30 100 -50  20 100 -50  10 100 -50  0 100 -50  -10 100 -50  -20 100 -50  -30 100 -50  -40 100 -50  -50 -75 40  -50 -75 30  -50 -75 20  -50 -75 10  -5
[...]
<CellData  Scalars="f">
<DataArray  type="Float64"  Name="f"  format="ascii">6 6 6 6 6 6 6 6 6 6 7 7 7 7 7 7 7 7 7 7 8 8 8 8 8 8 8 8 8 8 9 9 9 9 9 9 9 9 9 9 10 10 10 10 10 10 10 10 10 10 11 11 11 11 11 11 11 11 11 11 12 12 12 12 12 12 12 12 12 12 13 13 13 13 13 13 13 13 13 13 14 14 14 14 14 14 14 14 14 14 15 15 15 15 15 15 15 15 15 15 16 16 16 16 16 16 16 16 16 16 17 17 17 17 17 17 17 17 17 17 18 18 18 18 18 18 18 18 18 18 19 19 19 19 19 19 19 19 19 19 20 20 20 20 20 20 20 20 20 20 21 21 21 21 21 21 21 21 21 21 22 22 22 22 22 22 22 22 22 22 23 23 23 23 23 23 23 23 23 23 24 24 24 24 24 24 24 24 24 24 25 25 25 25 25 25 25 25 25 25 26 26 26 26 26 26 26 26 26 26 27 27 27 27 27 27 27 27 27 27 28 28 28 28 28 28 28 28 28 28 29 29 29 29 29 29 29 29 29 29 30 30 30 30 30 30 30 30 30 30 </DataArray>
</CellData>
</Piece>
</UnstructuredGrid>
</VTKFile>